 Gaussian 09, Revision D.01,
 Gaussian 09:  ES64L-G09RevD.01 24-Apr-2013

 ----------------------------------------------------------------------
 # B3LYP/6-31G(d) opt=calcfc freq=noraman nosymm integral(ultrafinegrid
 )
 ----------------------------------------------------------------------

 ------------------------------------------------------------
 Candidate Structure: Conf:301 OPT and FREQ calc in gas phase
 ------------------------------------------------------------
 Symbolic Z-matrix:
 Charge =  1 Multiplicity = 1

 SCF Done:  E(RB3LYP) =  -796.472699054     A.U. after   14 cycles
 SCF Done:  E(RB3LYP) =  -793.928440226     A.U. after   19 cycles
 SCF Done:  E(RB3LYP) =  -796.443220011     A.U. after   14 cycles
 SCF Done:  E(RB3LYP) =  -796.478232064     A.U. after   12 cycles
 SCF Done:  E(RB3LYP) =  -796.482471094     A.U. after   13 cycles
 SCF Done:  E(RB3LYP) =  -796.448361362     A.U. after   15 cycles
 SCF Done:  E(RB3LYP) =  -796.482511853     A.U. after   10 cycles
 SCF Done:  E(RB3LYP) =  -796.485165991     A.U. after   13 cycles
 SCF Done:  E(RB3LYP) =  -796.485894218     A.U. after   12 cycles
 SCF Done:  E(RB3LYP) =  -796.486111657     A.U. after   11 cycles
 SCF Done:  E(RB3LYP) =  -796.486178536     A.U. after   11 cycles
 SCF Done:  E(RB3LYP) =  -796.486260730     A.U. after   11 cycles
 SCF Done:  E(RB3LYP) =  -796.486292008     A.U. after   11 cycles
 SCF Done:  E(RB3LYP) =  -796.486307615     A.U. after   10 cycles
 SCF Done:  E(RB3LYP) =  -796.486311978     A.U. after    8 cycles
 SCF Done:  E(RB3LYP) =  -796.486313206     A.U. after    8 cycles
 SCF Done:  E(RB3LYP) =  -796.486313334     A.U. after    7 cycles
 Optimization completed.
    -- Stationary point found.
 Normal termination of Gaussian 09 at Wed Jul 28 22:44:31 2021.

 --------------------------------------------------------------------
 #N Geom=AllCheck Guess=TCheck SCRF=Check GenChk RB3LYP/6-31G(d) Freq
 --------------------------------------------------------------------

 Structure from the checkpoint file:  "conf-301.chk"
 ------------------------------------------------------------
 Candidate Structure: Conf:301 OPT and FREQ calc in gas phase
 ------------------------------------------------------------
 Charge =  1 Multiplicity = 1

                          Input orientation:
 ---------------------------------------------------------------------
 Center     Atomic      Atomic             Coordinates (Angstroms)
 Number     Number       Type             X           Y           Z
 ---------------------------------------------------------------------
      1          8           0       -0.033427   -0.227220   -1.693868
      2          6           0        0.411689    0.714170   -1.018499
      3          7           0       -0.368041    1.487967   -0.238262
      4          6           0       -1.734357    1.139001    0.108541
      5          6           0       -2.478581    2.436615    0.403886
      6          8           0       -3.804352    2.244033    0.433945
      7          8           0       -1.922207    3.487235    0.632047
      8          6           0       -1.790800    0.211861    1.383868
      9          6           0       -0.872760   -0.959079    1.267132
     10          6           0        0.483469   -1.054296    1.482437
     11          7           0        0.984074   -2.238788    0.982335
     12          6           0       -0.069174   -2.881400    0.500137
     13          7           0       -1.204796   -2.150764    0.650064
     14          6           0        1.914786    1.019043   -0.964258
     15          6           0        2.768409   -0.002355   -1.724766
     16          7           0        2.295419   -1.415592   -1.474787
     17          1           0       -0.004395    2.327519    0.201718
     18          1           0       -2.192808    0.625482   -0.738974
     19          1           0       -4.226539    3.093730    0.669624
     20          1           0       -1.496467    0.808273    2.254241
     21          1           0       -2.831521   -0.091017    1.539961
     22          1           0        1.125485   -0.335972    1.974671
     23          1           0       -0.063000   -3.869210    0.059652
     24          1           0       -2.132625   -2.435097    0.363487
     25          1           0        2.224921    1.065275    0.085342
     26          1           0        2.116076    2.009142   -1.391361
     27          1           0        2.693487    0.145230   -2.804190
     28          1           0        3.816973    0.069499   -1.431279
     29          1           0        2.857454   -2.102520   -1.984855
     30          1           0        1.303370   -1.415201   -1.802768
     31          1           0        2.230430   -1.705978   -0.469544
 ---------------------------------------------------------------------

 SCF Done:  E(RB3LYP) =  -796.486313334     A.U. after    1 cycles

 Alpha  occ. eigenvalues --  -19.31985 -19.26992 -19.26530 -14.58615 -14.52346
 Alpha  occ. eigenvalues --  -14.50332 -14.45500 -10.44690 -10.44353 -10.40520
 Alpha  occ. eigenvalues --  -10.37575 -10.37478 -10.35930 -10.35217 -10.33768
 Alpha  occ. eigenvalues --  -10.32882  -1.23053  -1.18772  -1.14705  -1.14341
 Alpha  occ. eigenvalues --   -1.13469  -1.07064  -1.00482  -0.94528  -0.92317
 Alpha  occ. eigenvalues --   -0.87701  -0.82349  -0.80100  -0.75217  -0.74668
 Alpha  occ. eigenvalues --   -0.73144  -0.72289  -0.72107  -0.71254  -0.67417
 Alpha  occ. eigenvalues --   -0.65682  -0.63723  -0.62489  -0.61124  -0.60503
 Alpha  occ. eigenvalues --   -0.59526  -0.58601  -0.57894  -0.56575  -0.55456
 Alpha  occ. eigenvalues --   -0.55031  -0.54305  -0.53792  -0.53437  -0.52794
 Alpha  occ. eigenvalues --   -0.52218  -0.50183  -0.49626  -0.44114  -0.42487
 Alpha  occ. eigenvalues --   -0.41295  -0.40969  -0.40158  -0.39830  -0.35579
 Alpha virt. eigenvalues --   -0.13108  -0.12363  -0.10295  -0.09661  -0.07877
 Alpha virt. eigenvalues --   -0.05124  -0.03964  -0.03351  -0.03115  -0.01976
 Alpha virt. eigenvalues --   -0.01771   0.00472   0.00804   0.01013   0.01563

 Mulliken charges:
               1
     1  O   -0.559668
     2  C    0.654874
     3  N   -0.594609
     4  C   -0.043306
     5  C    0.598862
     6  O   -0.555853
     7  O   -0.447810
     8  C   -0.371521
     9  C    0.353836
    10  C   -0.095073
    11  N   -0.479207
    12  C    0.212228
    13  N   -0.581605
    14  C   -0.400565
    15  C   -0.187932
    16  N   -0.764818
    17  H    0.365654
    18  H    0.215489
    19  H    0.438976
    20  H    0.193632
    21  H    0.196771
    22  H    0.157286
    23  H    0.193167
    24  H    0.361195
    25  H    0.202920
    26  H    0.226893
    27  H    0.225181
    28  H    0.222520
    29  H    0.405494
    30  H    0.434442
    31  H    0.422548
 Sum of Mulliken charges =   1.00000

 Dipole moment (field-independent basis, Debye):
    X=              2.7940    Y=             -2.2683    Z=             -3.3201  Tot=              4.8964
 Quadrupole moment (field-independent basis, Debye-Ang):
   XX=            -48.1449   YY=            -71.8318   ZZ=            -82.8133
   XY=             -6.3987   XZ=            -20.1655   YZ=              8.5066

  Exact polarizability: 136.674 -13.136 131.980 -13.851  11.988  90.998
 Approx polarizability: 202.737  -2.459 199.779  -1.830  31.698 141.952

                      1                      2                      3
                      A                      A                      A
 Frequencies --     56.6924                70.6587                97.0485
 Red. masses --     10.8831                 4.7662                 4.8598
 Frc consts  --      0.0206                 0.0140                 0.0270
 IR Inten    --      1.3514                 0.3949                 4.5990

                      4                      5                      6
                      A                      A                      A
 Frequencies --    109.6584               112.0249               122.9147
 Red. masses --      4.0495                 4.8039                 3.5360
 Frc consts  --      0.0287                 0.0355                 0.0315
 IR Inten    --      4.9038                 1.9713                13.2021

                      7                      8                      9
                      A                      A                      A
 Frequencies --    148.7482               157.0666               170.0212
 Red. masses --      4.5366                 4.4295                 4.3304
 Frc consts  --      0.0591                 0.0644                 0.0738
 IR Inten    --     10.3512                 7.0124                 6.8508

                     10                     11                     12
                      A                      A                      A
 Frequencies --    207.3469               263.3222               308.0270
 Red. masses --      2.5360                 5.0361                 5.6266
 Frc consts  --      0.0642                 0.2057                 0.3145
 IR Inten    --     30.6738                41.8966                 0.6978

                     13                     14                     15
                      A                      A                      A
 Frequencies --    312.7525               344.2645               368.6619
 Red. masses --      3.8120                 2.8856                 3.5602
 Frc consts  --      0.2197                 0.2015                 0.2851
 IR Inten    --      2.2021                 0.9124                53.2169

                     16                     17                     18
                      A                      A                      A
 Frequencies --    401.0360               423.5218               447.0100
 Red. masses --      1.8977                 2.1490                 1.9841
 Frc consts  --      0.1798                 0.2271                 0.2336
 IR Inten    --     11.4874                 5.4363                 2.0558

                     19                     20                     21
                      A                      A                      A
 Frequencies --    536.1456               549.7816               587.8156
 Red. masses --      2.0583                 3.5583                 1.6042
 Frc consts  --      0.3486                 0.6337                 0.3266
 IR Inten    --     63.7338                20.9122               120.4145

                     22                     23                     24
                      A                      A                      A
 Frequencies --    615.0206               625.9125               636.4219
 Red. masses --      1.5250                 1.6029                 3.3755
 Frc consts  --      0.3399                 0.3700                 0.8055
 IR Inten    --     37.0841                14.2309                77.9188

                     25                     26                     27
                      A                      A                      A
 Frequencies --    680.9439               689.5260               694.5720
 Red. masses --      2.2651                 2.9938                 3.0326
 Frc consts  --      0.6188                 0.8386                 0.8620
 IR Inten    --     90.5964                11.5541                 1.3876

                     28                     29                     30
                      A                      A                      A
 Frequencies --    720.9303               770.1949               815.1202
 Red. masses --      3.2842                 4.0745                 1.3772
 Frc consts  --      1.0057                 1.4241                 0.5391
 IR Inten    --      4.5823                20.8750                 8.9775

                     31                     32                     33
                      A                      A                      A
 Frequencies --    840.6100               852.5410               865.9095
 Red. masses --      1.4647                 2.2664                 2.2609
 Frc consts  --      0.6098                 0.9706                 0.9988
 IR Inten    --     29.7198                 8.3413                26.4615

                     34                     35                     36
                      A                      A                      A
 Frequencies --    881.2575               925.4513               938.8223
 Red. masses --      2.3029                 2.6078                 5.7880
 Frc consts  --      1.0537                 1.3159                 3.0057
 IR Inten    --      0.2198                16.3296                14.6581

                     37                     38                     39
                      A                      A                      A
 Frequencies --    972.9490               980.7650              1004.7109
 Red. masses --      1.6334                 2.7114                 3.0809
 Frc consts  --      0.9110                 1.5366                 1.8324
 IR Inten    --      6.9895                10.0599                10.3214

                     40                     41                     42
                      A                      A                      A
 Frequencies --   1032.1774              1048.8061              1104.8273
 Red. masses --      3.6890                 2.9668                 2.2645
 Frc consts  --      2.3156                 1.9228                 1.6286
 IR Inten    --      4.1606                15.3643                 6.7716

                     43                     44                     45
                      A                      A                      A
 Frequencies --   1134.7412              1141.5961              1142.4354
 Red. masses --      1.4044                 1.6775                 1.7153
 Frc consts  --      1.0655                 1.2880                 1.3190
 IR Inten    --     56.7610                26.5069                69.2839

                     46                     47                     48
                      A                      A                      A
 Frequencies --   1155.6320              1183.8675              1216.2953
 Red. masses --      1.6405                 1.9394                 1.7575
 Frc consts  --      1.2908                 1.6015                 1.5319
 IR Inten    --      5.5954               196.8957                10.4462

                     49                     50                     51
                      A                      A                      A
 Frequencies --   1259.7117              1269.8677              1290.8957
 Red. masses --      1.5601                 1.6670                 1.5071
 Frc consts  --      1.4586                 1.5838                 1.4797
 IR Inten    --     10.8331                33.0204                 0.2713

                     52                     53                     54
                      A                      A                      A
 Frequencies --   1294.4714              1297.4917              1344.2706
 Red. masses --      1.4605                 1.5819                 1.3296
 Frc consts  --      1.4419                 1.5690                 1.4156
 IR Inten    --      1.5042                13.3459                22.3008

                     55                     56                     57
                      A                      A                      A
 Frequencies --   1355.0246              1366.0205              1398.7184
 Red. masses --      1.4058                 1.2662                 1.8552
 Frc consts  --      1.5208                 1.3921                 2.1384
 IR Inten    --     32.6331                 3.9851                39.4993

                     58                     59                     60
                      A                      A                      A
 Frequencies --   1403.4073              1433.6611              1436.5223
 Red. masses --      2.3535                 2.3723                 1.3991
 Frc consts  --      2.7311                 2.8729                 1.7011
 IR Inten    --     12.6577               134.4036                20.1189

                     61                     62                     63
                      A                      A                      A
 Frequencies --   1451.4626              1492.8910              1508.2385
 Red. masses --      2.8360                 1.0917                 1.3109
 Frc consts  --      3.5202                 1.4335                 1.7569
 IR Inten    --     28.6321                22.2503                46.7154

                     64                     65                     66
                      A                      A                      A
 Frequencies --   1514.4940              1523.2091              1529.6766
 Red. masses --      1.6728                 1.4304                 1.1475
 Frc consts  --      2.2606                 1.9553                 1.5820
 IR Inten    --     63.9365               103.3658                72.5084

                     67                     68                     69
                      A                      A                      A
 Frequencies --   1572.4345              1623.2467              1668.4889
 Red. masses --      2.2608                 4.1188                 1.1564
 Frc consts  --      3.2935                 6.3943                 1.8967
 IR Inten    --    207.1141                 6.4427               144.3987

                     70                     71                     72
                      A                      A                      A
 Frequencies --   1722.9929              1741.3259              1847.3724
 Red. masses --      1.2607                 2.5060                10.1436
 Frc consts  --      2.2052                 4.4770                20.3964
 IR Inten    --    227.8824                51.7989               242.4992

                     73                     74                     75
                      A                      A                      A
 Frequencies --   3072.7338              3074.6088              3093.2243
 Red. masses --      1.0618                 1.0608                 1.0767
 Frc consts  --      5.9065                 5.9085                 6.0699
 IR Inten    --      0.9809                10.2675               484.9495

                     76                     77                     78
                      A                      A                      A
 Frequencies --   3111.6022              3119.2230              3120.3659
 Red. masses --      1.0961                 1.1020                 1.0684
 Frc consts  --      6.2527                 6.3170                 6.1288
 IR Inten    --     27.1454                 1.7917                14.7631

                     79                     80                     81
                      A                      A                      A
 Frequencies --   3137.9881              3148.1819              3176.4090
 Red. masses --      1.0887                 1.0690                 1.1093
 Frc consts  --      6.3161                 6.2423                 6.5944
 IR Inten    --      5.9051               276.5640                 5.5466

                     82                     83                     84
                      A                      A                      A
 Frequencies --   3263.4911              3278.8451              3500.5065
 Red. masses --      1.0964                 1.0983                 1.0796
 Frc consts  --      6.8802                 6.9568                 7.7943
 IR Inten    --      2.6648                 1.0251               107.6258

                     85                     86                     87
                      A                      A                      A
 Frequencies --   3570.8389              3631.5497              3670.2941
 Red. masses --      1.0779                 1.0818                 1.0643
 Frc consts  --      8.0979                 8.4060                 8.4476
 IR Inten    --     90.8072                78.4471               113.6735

 - Thermochemistry -
 -------------------
 Temperature   298.150 Kelvin.  Pressure   1.00000 Atm.
 Atom     1 has atomic number  8 and mass  15.99491

 Molecular mass:   227.11442 amu.
 Principal axes and moments of inertia in atomic units:
                           1         2         3
     Eigenvalues --  2236.469824498.929395937.30435
           X            0.73168   0.47224   0.49156
           Y           -0.65202   0.69516   0.30269
           Z           -0.19877  -0.54199   0.81654
 This molecule is an asymmetric top.
 Rotational symmetry number  1.
 Warning -- assumption of classical behavior for rotation
           may cause significant error
 Rotational temperatures (Kelvin)      0.03873     0.01925     0.01459
 Rotational constants (GHZ):           0.80696     0.40115     0.30397
 Zero-point vibrational energy     686550.7 (Joules/Mol)
                                  164.08956 (Kcal/Mol)
 Warning -- explicit consideration of  22 degrees of freedom as
           vibrations may cause significant error
 Vibrational temperatures:     81.57   101.66   139.63   157.77   161.18
          (Kelvin)            176.85   214.02   225.98   244.62   298.33
                              378.86   443.18   449.98   495.32   530.42
                              577.00   609.35   643.15   771.39   791.01
                              845.73   884.88   900.55   915.67   979.73
                              992.07   999.33  1037.26  1108.14  1172.77
                             1209.45  1226.61  1245.85  1267.93  1331.52
                             1350.75  1399.85  1411.10  1445.55  1485.07
                             1509.00  1589.60  1632.64  1642.50  1643.71
                             1662.69  1703.32  1749.98  1812.44  1827.05
                             1857.31  1862.45  1866.80  1934.10  1949.58
                             1965.40  2012.44  2019.19  2062.72  2066.83
                             2088.33  2147.93  2170.02  2179.02  2191.56
                             2200.86  2262.38  2335.49  2400.58  2479.00
                             2505.38  2657.95  4420.97  4423.67  4450.45
                             4476.90  4487.86  4489.50  4514.86  4529.53
                             4570.14  4695.43  4717.52  5036.44  5137.63
                             5224.98  5280.73

 Zero-point correction=                           0.261493 (Hartree/Particle)
 Thermal correction to Energy=                    0.276527
 Thermal correction to Enthalpy=                  0.277471
 Thermal correction to Gibbs Free Energy=         0.219490
 Sum of electronic and zero-point Energies=           -796.224820
 Sum of electronic and thermal Energies=              -796.209786
 Sum of electronic and thermal Enthalpies=            -796.208842
 Sum of electronic and thermal Free Energies=         -796.266823

                     E (Thermal)             CV                S
                      KCal/Mol        Cal/Mol-Kelvin    Cal/Mol-Kelvin
 Total                  173.523             57.466            122.032
 Electronic               0.000              0.000              0.000
 Translational            0.889              2.981             42.163
 Rotational               0.889              2.981             32.457
 Vibrational            171.746             51.504             47.412
 Vibration     1          0.596              1.975              4.569
 Vibration     2          0.598              1.968              4.135
 Vibration     3          0.603              1.951              3.513
 Vibration     4          0.606              1.941              3.275
 Vibration     5          0.607              1.940              3.234
 Vibration     6          0.610              1.930              3.054
 Vibration     7          0.618              1.904              2.688
 Vibration     8          0.621              1.895              2.585
 Vibration     9          0.625              1.879              2.435
 Vibration    10          0.641              1.829              2.067
 Vibration    11          0.670              1.740              1.640
 Vibration    12          0.698              1.658              1.373
 Vibration    13          0.701              1.649              1.348
 Vibration    14          0.723              1.587              1.192
 Vibration    15          0.741              1.537              1.085
 Vibration    16          0.767              1.468              0.959
 Vibration    17          0.786              1.419              0.880
 Vibration    18          0.806              1.367              0.805
 Vibration    19          0.891              1.170              0.574
 Vibration    20          0.905              1.140              0.545
 Vibration    21          0.945              1.058              0.471
 Vibration    22          0.975              1.000              0.425

 Optimization completed.
    -- Stationary point found.
 Normal termination of Gaussian 09 at Wed Jul 28 23:04:07 2021.
